
     Program PWSCF v.7.3.1 starts on 27May2025 at  9:35:56 

     This program is part of the open-source Quantum ESPRESSO suite
     for quantum simulation of materials; please cite
         "P. Giannozzi et al., J. Phys.:Condens. Matter 21 395502 (2009);
         "P. Giannozzi et al., J. Phys.:Condens. Matter 29 465901 (2017);
         "P. Giannozzi et al., J. Chem. Phys. 152 154105 (2020);
          URL http://www.quantum-espresso.org", 
     in publications or presentations arising from this work. More details at
     http://www.quantum-espresso.org/quote

     Parallel version (MPI), running on     1 processors

     MPI processes distributed on     1 nodes
     1239 MiB available memory on the printing compute node when the environment starts

     Waiting for input...
     Reading input from standard input

     Current dimensions of program PWSCF are:
     Max number of different atomic species (ntypx) = 10
     Max number of k-points (npk) =  40000
     Max angular momentum in pseudopotentials (lmaxx) =  4
read_pp_mesh; mismatch in mesh size, discarding the one in header
read_pp_mesh; mismatch in mesh size, discarding the one in header

     Atomic positions and unit cell read from directory:
     ./GaAs.save/


     Subspace diagonalization in iterative solution of the eigenvalue problem:
     a serial algorithm will be used


     G-vector sticks info
     --------------------
     sticks:   dense  smooth     PW     G-vecs:    dense   smooth      PW
     Sum         313     313    109                 3695     3695     749

     Using Slab Decomposition



     bravais-lattice index     =            2
     lattice parameter (alat)  =      10.6845  a.u.
     unit-cell volume          =     304.9327 (a.u.)^3
     number of atoms/cell      =            2
     number of atomic types    =            2
     number of electrons       =        28.00
     number of Kohn-Sham states=           26
     kinetic-energy cutoff     =      20.0000  Ry
     charge density cutoff     =      80.0000  Ry
     Exchange-correlation= SLA PW PBX PBC
                           (   1   4   3   4   0   0   0)

     celldm(1)=  10.684512  celldm(2)=   0.000000  celldm(3)=   0.000000
     celldm(4)=   0.000000  celldm(5)=   0.000000  celldm(6)=   0.000000

     crystal axes: (cart. coord. in units of alat)
               a(1) = (  -0.500000   0.000000   0.500000 )  
               a(2) = (   0.000000   0.500000   0.500000 )  
               a(3) = (  -0.500000   0.500000   0.000000 )  

     reciprocal axes: (cart. coord. in units 2 pi/alat)
               b(1) = ( -1.000000 -1.000000  1.000000 )  
               b(2) = (  1.000000  1.000000  1.000000 )  
               b(3) = ( -1.000000  1.000000 -1.000000 )  


     PseudoPot. # 1 for Ga read from file:
     ./Ga.upf
     MD5 check sum: af6db983f026cb9dd985cd4b244cce6a
     Pseudo is Projector augmented-wave + core cor, Zval = 13.0
     Generated using ATOMPAW code
     Shape of augmentation charge: BESSEL
     Using radial grid of 2342 points,  6 beta functions with: 
                l(1) =   0
                l(2) =   0
                l(3) =   1
                l(4) =   1
                l(5) =   2
                l(6) =   2
     Q(r) pseudized with 0 coefficients 


     PseudoPot. # 2 for As read from file:
     ./As.upf
     MD5 check sum: f73efd5a1092b21ddd87c5642dc1208e
     Pseudo is Projector augmented-wave + core cor, Zval = 15.0
     Generated using ATOMPAW code
     Shape of augmentation charge: BESSEL
     Using radial grid of 2342 points,  6 beta functions with: 
                l(1) =   0
                l(2) =   0
                l(3) =   1
                l(4) =   1
                l(5) =   2
                l(6) =   2
     Q(r) pseudized with 0 coefficients 


     atomic species   valence    mass     pseudopotential
     Ga               13.00   234.00000     Ga( 1.00)
     As               15.00   123.00000     As( 1.00)

     24 Sym. Ops. (no inversion) found



   Cartesian axes

     site n.     atom                  positions (alat units)
         1        Ga     tau(   1) = (   0.0000000   0.0000000   0.0000000  )
         2        As     tau(   2) = (  -0.2500000   0.2500000   0.2500000  )

     number of k points=    67
                       cart. coord. in units 2pi/alat
        k(    1) = (  -0.5000000   0.5000000   0.5000000), wk =   0.0298507
        k(    2) = (  -0.4750000   0.4750000   0.4750000), wk =   0.0298507
        k(    3) = (  -0.4500000   0.4500000   0.4500000), wk =   0.0298507
        k(    4) = (  -0.4250000   0.4250000   0.4250000), wk =   0.0298507
        k(    5) = (  -0.4000000   0.4000000   0.4000000), wk =   0.0298507
        k(    6) = (  -0.3750000   0.3750000   0.3750000), wk =   0.0298507
        k(    7) = (  -0.3500000   0.3500000   0.3500000), wk =   0.0298507
        k(    8) = (  -0.3250000   0.3250000   0.3250000), wk =   0.0298507
        k(    9) = (  -0.3000000   0.3000000   0.3000000), wk =   0.0298507
        k(   10) = (  -0.2750000   0.2750000   0.2750000), wk =   0.0298507
        k(   11) = (  -0.2500000   0.2500000   0.2500000), wk =   0.0298507
        k(   12) = (  -0.2250000   0.2250000   0.2250000), wk =   0.0298507
        k(   13) = (  -0.2000000   0.2000000   0.2000000), wk =   0.0298507
        k(   14) = (  -0.1750000   0.1750000   0.1750000), wk =   0.0298507
        k(   15) = (  -0.1500000   0.1500000   0.1500000), wk =   0.0298507
        k(   16) = (  -0.1250000   0.1250000   0.1250000), wk =   0.0298507
        k(   17) = (  -0.1000000   0.1000000   0.1000000), wk =   0.0298507
        k(   18) = (  -0.0750000   0.0750000   0.0750000), wk =   0.0298507
        k(   19) = (  -0.0500000   0.0500000   0.0500000), wk =   0.0298507
        k(   20) = (  -0.0250000   0.0250000   0.0250000), wk =   0.0298507
        k(   21) = (   0.0000000   0.0000000   0.0000000), wk =   0.0298507
        k(   22) = (  -0.0500000  -0.0500000   0.0000000), wk =   0.0298507
        k(   23) = (  -0.1000000  -0.1000000   0.0000000), wk =   0.0298507
        k(   24) = (  -0.1500000  -0.1500000   0.0000000), wk =   0.0298507
        k(   25) = (  -0.2000000  -0.2000000   0.0000000), wk =   0.0298507
        k(   26) = (  -0.2500000  -0.2500000   0.0000000), wk =   0.0298507
        k(   27) = (  -0.3000000  -0.3000000   0.0000000), wk =   0.0298507
        k(   28) = (  -0.3500000  -0.3500000   0.0000000), wk =   0.0298507
        k(   29) = (  -0.4000000  -0.4000000   0.0000000), wk =   0.0298507
        k(   30) = (  -0.4500000  -0.4500000   0.0000000), wk =   0.0298507
        k(   31) = (  -0.5000000  -0.5000000   0.0000000), wk =   0.0298507
        k(   32) = (  -0.5500000  -0.5500000   0.0000000), wk =   0.0298507
        k(   33) = (  -0.6000000  -0.6000000   0.0000000), wk =   0.0298507
        k(   34) = (  -0.6500000  -0.6500000   0.0000000), wk =   0.0298507
        k(   35) = (  -0.7000000  -0.7000000   0.0000000), wk =   0.0298507
        k(   36) = (  -0.7500000  -0.7500000   0.0000000), wk =   0.0298507
        k(   37) = (  -0.8000000  -0.8000000   0.0000000), wk =   0.0298507
        k(   38) = (  -0.8500000  -0.8500000   0.0000000), wk =   0.0298507
        k(   39) = (  -0.9000000  -0.9000000   0.0000000), wk =   0.0298507
        k(   40) = (  -0.9500000  -0.9500000   0.0000000), wk =   0.0298507
        k(   41) = (  -1.0000000  -1.0000000   0.0000000), wk =   0.0298507
        k(   42) = (  -0.9583333  -0.9583333   0.0000000), wk =   0.0298507
        k(   43) = (  -0.9166667  -0.9166667   0.0000000), wk =   0.0298507
        k(   44) = (  -0.8750000  -0.8750000   0.0000000), wk =   0.0298507
        k(   45) = (  -0.8333333  -0.8333333   0.0000000), wk =   0.0298507
        k(   46) = (  -0.7916667  -0.7916667   0.0000000), wk =   0.0298507
        k(   47) = (  -0.7500000  -0.7500000   0.0000000), wk =   0.0298507
        k(   48) = (  -0.7125000  -0.7125000   0.0000000), wk =   0.0298507
        k(   49) = (  -0.6750000  -0.6750000   0.0000000), wk =   0.0298507
        k(   50) = (  -0.6375000  -0.6375000   0.0000000), wk =   0.0298507
        k(   51) = (  -0.6000000  -0.6000000   0.0000000), wk =   0.0298507
        k(   52) = (  -0.5625000  -0.5625000   0.0000000), wk =   0.0298507
        k(   53) = (  -0.5250000  -0.5250000   0.0000000), wk =   0.0298507
        k(   54) = (  -0.4875000  -0.4875000   0.0000000), wk =   0.0298507
        k(   55) = (  -0.4500000  -0.4500000   0.0000000), wk =   0.0298507
        k(   56) = (  -0.4125000  -0.4125000   0.0000000), wk =   0.0298507
        k(   57) = (  -0.3750000  -0.3750000   0.0000000), wk =   0.0298507
        k(   58) = (  -0.3375000  -0.3375000   0.0000000), wk =   0.0298507
        k(   59) = (  -0.3000000  -0.3000000   0.0000000), wk =   0.0298507
        k(   60) = (  -0.2625000  -0.2625000   0.0000000), wk =   0.0298507
        k(   61) = (  -0.2250000  -0.2250000   0.0000000), wk =   0.0298507
        k(   62) = (  -0.1875000  -0.1875000   0.0000000), wk =   0.0298507
        k(   63) = (  -0.1500000  -0.1500000   0.0000000), wk =   0.0298507
        k(   64) = (  -0.1125000  -0.1125000   0.0000000), wk =   0.0298507
        k(   65) = (  -0.0750000  -0.0750000   0.0000000), wk =   0.0298507
        k(   66) = (  -0.0375000  -0.0375000   0.0000000), wk =   0.0298507
        k(   67) = (   0.0000000   0.0000000   0.0000000), wk =   0.0298507

     Dense  grid:     3695 G-vectors     FFT dimensions: (  24,  24,  24)

     Estimated max dynamical RAM per process >      13.95 MB

     The potential is recalculated from file :
     ./GaAs.save/charge-density

     Starting wfcs are   36 randomized atomic wfcs
     Checking if some PAW data can be deallocated... 

     Band Structure Calculation
     Davidson diagonalization with overlap
     c_bands:  1 eigenvalues not converged

     ethr =  3.57E-13,  avg # of iterations = 54.6

     total cpu time spent up to now is       16.5 secs

     End of band structure calculation

          k =-0.5000 0.5000 0.5000 (   464 PWs)   bands (ev):

   -26.6813 -26.6798 -26.6798 -26.6670 -26.6670  -6.4957  -6.4046  -6.4046
    -6.3228  -6.3228  -2.3756   1.9749   7.4612   7.4612   9.5957  13.2446
    13.2446  16.3679  18.9966  20.5208  20.5208  21.1243  21.7951  21.7951
    28.0680  30.4450

          k =-0.4750 0.4750 0.4750 (   464 PWs)   bands (ev):

   -26.6812 -26.6798 -26.6798 -26.6670 -26.6670  -6.4952  -6.4046  -6.4046
    -6.3227  -6.3227  -2.3939   2.0079   7.4661   7.4661   9.6007  13.2474
    13.2474  16.3702  18.8789  20.3465  20.3465  21.2423  21.9942  21.9942
    27.8359  30.4269

          k =-0.4500 0.4500 0.4500 (   464 PWs)   bands (ev):

   -26.6811 -26.6797 -26.6797 -26.6668 -26.6668  -6.4936  -6.4045  -6.4045
    -6.3225  -6.3225  -2.4472   2.1050   7.4810   7.4810   9.6159  13.2554
    13.2554  16.3748  18.5894  19.9856  19.9856  21.5287  22.4294  22.4294
    27.3293  29.7212

          k =-0.4250 0.4250 0.4250 (   470 PWs)   bands (ev):

   -26.6809 -26.6800 -26.6800 -26.6699 -26.6699  -6.4912  -6.4062  -6.4062
    -6.3325  -6.3325  -2.5305   2.2612   7.5055   7.5055   9.6409  13.2673
    13.2673  16.3730  18.2298  19.5857  19.5857  21.8701  22.9532  22.9532
    26.7723  29.0072

          k =-0.4000 0.4000 0.4000 (   467 PWs)   bands (ev):

   -26.6805 -26.6797 -26.6797 -26.6684 -26.6684  -6.4874  -6.4052  -6.4052
    -6.3282  -6.3282  -2.6373   2.4698   7.5397   7.5397   9.6757  13.2815
    13.2815  16.3447  17.8731  19.1937  19.1937  22.1697  23.5228  23.5228
    26.2890  28.3064

          k =-0.3750 0.3750 0.3750 (   465 PWs)   bands (ev):

   -26.6795 -26.6795 -26.6783 -26.6680 -26.6680  -6.4769  -6.4052  -6.4052
    -6.3276  -6.3276  -2.7605   2.7237   7.5832   7.5832   9.7199  13.2947
    13.2947  16.2513  17.5823  18.8269  18.8269  22.3290  24.1197  24.1197
    25.9838  27.6247

          k =-0.3500 0.3500 0.3500 (   468 PWs)   bands (ev):

   -26.6800 -26.6800 -26.6774 -26.6696 -26.6696  -6.4702  -6.4073  -6.4073
    -6.3335  -6.3335  -2.8940   3.0159   7.6356   7.6356   9.7727  13.3035
    13.3035  16.0493  17.4122  18.4944  18.4944  22.2641  24.7314  24.7314
    25.9423  26.9697

          k =-0.3250 0.3250 0.3250 (   468 PWs)   bands (ev):

   -26.6798 -26.6798 -26.6775 -26.6697 -26.6697  -6.4658  -6.4074  -6.4074
    -6.3343  -6.3343  -3.0326   3.3408   7.6964   7.6964   9.8334  13.3034
    13.3034  15.7398  17.3661  18.2049  18.2049  21.9752  25.3208  25.3208
    26.1632  26.3784

          k =-0.3000 0.3000 0.3000 (   468 PWs)   bands (ev):

   -26.6795 -26.6795 -26.6774 -26.6696 -26.6696  -6.4606  -6.4075  -6.4075
    -6.3348  -6.3348  -3.1715   3.6932   7.7651   7.7651   9.9006  13.2897
    13.2897  15.3655  17.4023  17.9647  17.9647  21.5413  25.4651  25.4651
    26.2718  26.2718

          k =-0.2750 0.2750 0.2750 (   477 PWs)   bands (ev):

   -26.6811 -26.6804 -26.6804 -26.6719 -26.6719  -6.4675  -6.4111  -6.4111
    -6.3431  -6.3431  -3.3077   4.0688   7.8408   7.8408   9.9724  13.2580
    13.2580  14.9630  17.4813  17.7793  17.7793  21.0434  24.9551  24.9551
    26.8568  26.8568

          k =-0.2500 0.2500 0.2500 (   477 PWs)   bands (ev):

   -26.6811 -26.6801 -26.6801 -26.6720 -26.6720  -6.4620  -6.4116  -6.4116
    -6.3436  -6.3436  -3.4379   4.4645   7.9224   7.9224  10.0459  13.2052
    13.2052  14.5537  17.5749  17.6539  17.6539  20.5397  24.3819  24.3819
    27.2526  27.5450

          k =-0.2250 0.2250 0.2250 (   477 PWs)   bands (ev):

   -26.6810 -26.6799 -26.6799 -26.6719 -26.6719  -6.4560  -6.4121  -6.4121
    -6.3439  -6.3439  -3.5602   4.8767   8.0087   8.0087  10.1167  13.1306
    13.1306  14.1498  17.5901  17.5901  17.6544  20.0761  23.8157  23.8157
    26.7494  28.2645

          k =-0.2000 0.2000 0.2000 (   471 PWs)   bands (ev):

   -26.6789 -26.6782 -26.6782 -26.6708 -26.6708  -6.4433  -6.4073  -6.4073
    -6.3413  -6.3413  -3.6730   5.3028   8.0982   8.0982  10.1779  13.0362
    13.0362  13.7609  17.5871  17.5871  17.6799  19.7041  23.2676  23.2676
    26.1764  29.0053

          k =-0.1750 0.1750 0.1750 (   471 PWs)   bands (ev):

   -26.6787 -26.6780 -26.6780 -26.6708 -26.6708  -6.4374  -6.4082  -6.4082
    -6.3409  -6.3409  -3.7751   5.7396   8.1885   8.1885  10.2196  12.9264
    12.9264  13.3972  17.6018  17.6414  17.6414  19.4805  22.7387  22.7387
    25.6193  29.7641

          k =-0.1500 0.1500 0.1500 (   471 PWs)   bands (ev):

   -26.6784 -26.6778 -26.6778 -26.6706 -26.6706  -6.4314  -6.4089  -6.4089
    -6.3403  -6.3403  -3.8654   6.1843   8.2774   8.2774  10.2271  12.8081
    12.8081  13.0714  17.4036  17.7475  17.7475  19.4276  22.2331  22.2331
    25.0910  30.5284

          k =-0.1250 0.1250 0.1250 (   471 PWs)   bands (ev):

   -26.6780 -26.6775 -26.6775 -26.6704 -26.6704  -6.4256  -6.4093  -6.4093
    -6.3396  -6.3396  -3.9430   6.6336   8.3619   8.3619  10.1822  12.6891
    12.6891  12.7989  17.1291  17.8982  17.8982  19.5055  21.7534  21.7534
    24.5992  31.2548

          k =-0.1000 0.1000 0.1000 (   471 PWs)   bands (ev):

   -26.6789 -26.6789 -26.6768 -26.6688 -26.6688  -6.4180  -6.4143  -6.4143
    -6.3351  -6.3351  -4.0074   7.0838   8.4387   8.4387  10.0668  12.5774
    12.5774  12.5935  16.8388  18.0851  18.0851  19.6556  21.3040  21.3040
    24.1527  31.9846

          k =-0.0750 0.0750 0.0750 (   474 PWs)   bands (ev):

   -26.6806 -26.6778 -26.6778 -26.6692 -26.6692  -6.4272  -6.4112  -6.4112
    -6.3365  -6.3365  -4.0580   7.5294   8.5040   8.5040   9.8728  12.4589
    12.4808  12.4808  16.5762  18.2960  18.2960  19.8316  20.8928  20.8928
    23.7645  32.7018

          k =-0.0500 0.0500 0.0500 (   462 PWs)   bands (ev):

   -26.6783 -26.6754 -26.6754 -26.6654 -26.6654  -6.4172  -6.4051  -6.4051
    -6.3229  -6.3229  -4.0943   7.9627   8.5541   8.5541   9.6085  12.3848
    12.4062  12.4062  16.3694  18.5127  18.5127  19.9985  20.5367  20.5367
    23.4542  33.3979

          k =-0.0250 0.0250 0.0250 (   459 PWs)   bands (ev):

   -26.6754 -26.6754 -26.6754 -26.6654 -26.6654  -6.4060  -6.4055  -6.4055
    -6.3227  -6.3227  -4.1163   8.3623   8.5857   8.5857   9.3042  12.3517
    12.3590  12.3590  16.2375  18.6946  18.6946  20.1209  20.2711  20.2711
    23.2487  34.0160

          k = 0.0000 0.0000 0.0000 (   459 PWs)   bands (ev):

   -26.6754 -26.6754 -26.6754 -26.6654 -26.6654  -6.4057  -6.4057  -6.4057
    -6.3229  -6.3229  -4.1236   8.5965   8.5965   8.5965   9.1006  12.3429
    12.3429  12.3429  16.1921  18.7717  18.7717  20.1661  20.1661  20.1661
    23.1759  34.3243

          k =-0.0500-0.0500 0.0000 (   459 PWs)   bands (ev):

   -26.6754 -26.6753 -26.6753 -26.6653 -26.6653  -6.4067  -6.4052  -6.4048
    -6.3226  -6.3226  -4.1041   8.1281   8.5293   8.5868   9.5072  12.3420
    12.3618  12.4352  16.3115  18.4994  18.6751  20.1714  20.2093  20.5179
    23.3670  33.5540

          k =-0.1000-0.1000 0.0000 (   473 PWs)   bands (ev):

   -26.6808 -26.6775 -26.6772 -26.6716 -26.6667  -6.4287  -6.4114  -6.4096
    -6.3437  -6.3269  -4.0459   7.4544   8.3352   8.5569   9.9923  12.3536
    12.4184  12.7084  16.6422  18.0155  18.4305  20.2069  20.3420  21.2383
    23.8815  32.0586

          k =-0.1500-0.1500 0.0000 (   465 PWs)   bands (ev):

   -26.6768 -26.6768 -26.6762 -26.6709 -26.6657  -6.4200  -6.4076  -6.4055
    -6.3415  -6.3240  -3.9499   6.7692   8.0359   8.5045  10.3723  12.4047
    12.5129  13.1285  17.1171  17.5551  18.1513  20.2973  20.5756  22.0994
    24.6154  30.4755

          k =-0.2000-0.2000 0.0000 (   473 PWs)   bands (ev):

   -26.6793 -26.6786 -26.6776 -26.6727 -26.6701  -6.4358  -6.4114  -6.4085
    -6.3480  -6.3376  -3.8182   6.1000   7.6609   8.4262  10.6585  12.5127
    12.6454  13.6035  17.1722  17.6186  18.0065  20.4442  20.9273  23.0464
    25.4918  28.9056

          k =-0.2500-0.2500 0.0000 (   469 PWs)   bands (ev):

   -26.6791 -26.6787 -26.6756 -26.6716 -26.6704  -6.4447  -6.4079  -6.3997
    -6.3448  -6.3379  -3.6531   5.4605   7.2417   8.3190  10.8841  12.6831
    12.8163  14.0011  16.8865  17.8449  18.3618  20.6493  21.4184  24.0630
    26.4635  27.3824

          k =-0.3000-0.3000 0.0000 (   467 PWs)   bands (ev):

   -26.6792 -26.6782 -26.6758 -26.6714 -26.6696  -6.4549  -6.4027  -6.3978
    -6.3444  -6.3348  -3.4582   4.8595   6.8050   8.1812  11.0707  12.9140
    13.0260  14.2167  16.7057  18.1516  18.9010  20.9152  22.0566  25.1392
    25.9307  27.4867

          k =-0.3500-0.3500 0.0000 (   465 PWs)   bands (ev):

   -26.6792 -26.6774 -26.6759 -26.6711 -26.6687  -6.4635  -6.3982  -6.3953
    -6.3441  -6.3315  -3.2379   4.3037   6.3719   8.0139  11.2218  13.2014
    13.2752  14.2603  16.6319  18.6792  19.4262  21.2503  22.7884  24.6329
    26.2667  28.3700

          k =-0.4000-0.4000 0.0000 (   465 PWs)   bands (ev):

   -26.6788 -26.6774 -26.6757 -26.6709 -26.6698  -6.4698  -6.3969  -6.3914
    -6.3399  -6.3386  -2.9986   3.7988   5.9590   7.8206  11.3258  13.5399
    13.5644  14.2330  16.6628  19.2185  19.9796  21.6736  22.9533  24.1916
    27.4276  28.2625

          k =-0.4500-0.4500 0.0000 (   463 PWs)   bands (ev):

   -26.6783 -26.6777 -26.6760 -26.6703 -26.6684  -6.4757  -6.3943  -6.3909
    -6.3368  -6.3354  -2.7483   3.3504   5.5800   7.6079  11.3650  13.8943
    13.9164  14.2410  16.7928  19.3998  20.6426  22.1361  22.3297  25.0651
    27.7308  28.4365

          k =-0.5000-0.5000 0.0000 (   463 PWs)   bands (ev):

   -26.6779 -26.6772 -26.6769 -26.6712 -26.6678  -6.4822  -6.3910  -6.3894
    -6.3406  -6.3329  -2.4977   2.9639   5.2471   7.3832  11.3285  14.2210
    14.2648  14.4454  17.0138  18.9594  21.3216  21.9465  22.9743  26.1453
    27.2207  28.0966

          k =-0.5500-0.5500 0.0000 (   461 PWs)   bands (ev):

   -26.6782 -26.6776 -26.6769 -26.6711 -26.6657  -6.4892  -6.3902  -6.3845
    -6.3430  -6.3252  -2.2596   2.6437   4.9729   7.1548  11.2240  14.4015
    14.6754  14.8992  17.3167  18.0831  21.9191  22.1570  23.8070  26.7155
    27.3668  27.5131

          k =-0.6000-0.6000 0.0000 (   459 PWs)   bands (ev):

   -26.6774 -26.6773 -26.6765 -26.6712 -26.6661  -6.4909  -6.3858  -6.3825
    -6.3447  -6.3251  -2.0483   2.3920   4.7717   6.9307  11.0737  14.5781
    15.1244  15.4219  17.1292  17.6931  22.4119  22.5986  24.5246  26.5732
    26.9177  27.9909

          k =-0.6500-0.6500 0.0000 (   456 PWs)   bands (ev):

   -26.6783 -26.6765 -26.6745 -26.6707 -26.6657  -6.4948  -6.3797  -6.3768
    -6.3462  -6.3224  -1.8771   2.2055   4.6592   6.7178  10.9021  14.5774
    15.6093  15.9732  16.4243  18.1351  22.8037  23.1297  24.8169  26.3099
    26.8147  27.5248

          k =-0.7000-0.7000 0.0000 (   462 PWs)   bands (ev):

   -26.6787 -26.6774 -26.6767 -26.6719 -26.6686  -6.5019  -6.3830  -6.3769
    -6.3519  -6.3304  -1.7539   2.0742   4.6502   6.5223  10.7286  14.0726
    16.1255  16.2384  16.6383  18.6339  23.0026  23.6827  24.8999  25.6821
    26.9626  27.0382

          k =-0.7500-0.7500 0.0000 (   458 PWs)   bands (ev):

   -26.6784 -26.6759 -26.6753 -26.6717 -26.6675  -6.5039  -6.3771  -6.3695
    -6.3534  -6.3250  -1.6780   1.9825   4.7530   6.3492  10.5669  13.2375
    16.5535  16.6660  17.2676  19.1832  22.8853  24.2054  25.0324  25.1733
    26.5168  26.6082

          k =-0.8000-0.8000 0.0000 (   462 PWs)   bands (ev):

   -26.6799 -26.6765 -26.6754 -26.6730 -26.6695  -6.5118  -6.3746  -6.3695
    -6.3600  -6.3299  -1.6411   1.9155   4.9616   6.2024  10.4255  12.3558
    17.0145  17.2185  17.9283  19.7725  22.5323  24.3671  24.4838  25.6584
    25.9467  26.2445

          k =-0.8500-0.8500 0.0000 (   460 PWs)   bands (ev):

   -26.6796 -26.6768 -26.6742 -26.6732 -26.6696  -6.5138  -6.3713  -6.3687
    -6.3594  -6.3287  -1.6301   1.8644   5.2494   6.0852  10.3095  11.5359
    17.5348  17.7616  18.5864  20.3896  22.0970  23.7129  24.1404  25.3380
    26.2507  26.4749

          k =-0.9000-0.9000 0.0000 (   462 PWs)   bands (ev):

   -26.6800 -26.6771 -26.6754 -26.6746 -26.6699  -6.5175  -6.3755  -6.3683
    -6.3628  -6.3286  -1.6326   1.8265   5.5649   5.9999  10.2195  10.8479
    18.0661  18.2551  19.1720  21.0135  21.7192  23.1044  23.4260  24.7297
    26.9180  27.1083

          k =-0.9500-0.9500 0.0000 (   464 PWs)   bands (ev):

   -26.6807 -26.6773 -26.6772 -26.6748 -26.6700  -6.5211  -6.3761  -6.3681
    -6.3678  -6.3282  -1.6381   1.8027   5.8259   5.9481  10.1416  10.3889
    18.5396  18.6257  19.5214  21.6050  21.6198  22.5820  22.6614  24.2179
    27.6341  27.8652

          k =-1.0000-1.0000 0.0000 (   460 PWs)   bands (ev):

   -26.6787 -26.6773 -26.6773 -26.6735 -26.6682  -6.5152  -6.3720  -6.3680
    -6.3680  -6.3222  -1.6405   1.7946   5.9307   5.9307  10.0752  10.2590
    18.7690  18.7690  19.5729  21.9198  22.0614  22.0614  22.1775  23.9981
    28.2843  28.3885

          k =-0.9583-0.9583 0.0000 (   464 PWs)   bands (ev):

   -26.6807 -26.6773 -26.6772 -26.6748 -26.6700  -6.5212  -6.3761  -6.3681
    -6.3679  -6.3281  -1.6389   1.8002   5.8568   5.9428  10.1269  10.3447
    18.6030  18.6682  19.5451  21.6483  21.6961  22.5041  22.5402  24.1542
    27.7538  27.9967

          k =-0.9167-0.9167 0.0000 (   462 PWs)   bands (ev):

   -26.6801 -26.6772 -26.6755 -26.6747 -26.6699  -6.5183  -6.3756  -6.3682
    -6.3627  -6.3285  -1.6344   1.8169   5.6629   5.9789  10.1939  10.6629
    18.2357  18.3971  19.3254  21.2170  21.6410  22.9193  23.1684  24.5411
    27.1543  27.3522

          k =-0.8750-0.8750 0.0000 (   460 PWs)   bands (ev):

   -26.6798 -26.6770 -26.6744 -26.6733 -26.6697  -6.5157  -6.3711  -6.3685
    -6.3597  -6.3287  -1.6304   1.8438   5.4080   6.0385  10.2615  11.1706
    17.8022  18.0181  18.8958  20.7026  21.8902  23.4001  23.8025  25.0295
    26.5754  26.7676

          k =-0.8333-0.8333 0.0000 (   464 PWs)   bands (ev):

   -26.6816 -26.6768 -26.6759 -26.6734 -26.6698  -6.5189  -6.3739  -6.3691
    -6.3637  -6.3300  -1.6319   1.8800   5.1473   6.1208  10.3452  11.7981
    17.3578  17.5835  18.3700  20.1819  22.2430  23.9278  24.3210  25.5433
    26.0450  26.3284

          k =-0.7917-0.7917 0.0000 (   462 PWs)   bands (ev):

   -26.6798 -26.6765 -26.6753 -26.6729 -26.6694  -6.5111  -6.3750  -6.3696
    -6.3596  -6.3299  -1.6451   1.9254   4.9204   6.2249  10.4474  12.5004
    16.9320  17.1263  17.8173  19.6720  22.6005  24.4741  24.4779  25.5678
    26.0450  26.2741

          k =-0.7500-0.7500 0.0000 (   458 PWs)   bands (ev):

   -26.6784 -26.6759 -26.6753 -26.6717 -26.6675  -6.5039  -6.3771  -6.3695
    -6.3534  -6.3250  -1.6780   1.9825   4.7530   6.3492  10.5669  13.2375
    16.5535  16.6660  17.2676  19.1832  22.8853  24.2054  25.0324  25.1733
    26.5168  26.6082

          k =-0.7125-0.7125 0.0000 (   462 PWs)   bands (ev):

   -26.6786 -26.6774 -26.6767 -26.6719 -26.6686  -6.5028  -6.3824  -6.3765
    -6.3526  -6.3300  -1.7307   2.0482   4.6653   6.4767  10.6866  13.8792
    16.2587  16.2949  16.7899  18.7668  23.0035  23.8199  24.9437  25.5216
    26.9114  26.9117

          k =-0.6750-0.6750 0.0000 (   456 PWs)   bands (ev):

   -26.6783 -26.6767 -26.6746 -26.6708 -26.6657  -6.4972  -6.3784  -6.3759
    -6.3475  -6.3215  -1.8092   2.1339   4.6410   6.6175  10.8146  14.3921
    15.8639  16.1694  16.3840  18.3781  22.9382  23.4055  24.8522  25.9989
    26.9519  27.2855

          k =-0.6375-0.6375 0.0000 (   456 PWs)   bands (ev):

   -26.6783 -26.6764 -26.6745 -26.6707 -26.6657  -6.4936  -6.3803  -6.3773
    -6.3456  -6.3228  -1.9155   2.2465   4.6781   6.7696  10.9458  14.6149
    15.4849  15.8369  16.5501  18.0189  22.7175  22.9936  24.7836  26.4635
    26.7295  27.6426

          k =-0.6000-0.6000 0.0000 (   459 PWs)   bands (ev):

   -26.6774 -26.6773 -26.6765 -26.6712 -26.6661  -6.4909  -6.3858  -6.3825
    -6.3447  -6.3251  -2.0483   2.3920   4.7717   6.9307  11.0737  14.5781
    15.1244  15.4219  17.1292  17.6931  22.4119  22.5986  24.5246  26.5732
    26.9177  27.9909

          k =-0.5625-0.5625 0.0000 (   461 PWs)   bands (ev):

   -26.6783 -26.6777 -26.6770 -26.6712 -26.6658  -6.4906  -6.3899  -6.3840
    -6.3436  -6.3252  -2.2037   2.5744   4.9152   7.0981  11.1897  14.4484
    14.7841  15.0254  17.4043  17.8407  22.0524  22.2518  24.0108  26.6566
    27.3650  27.6286

          k =-0.5250-0.5250 0.0000 (   455 PWs)   bands (ev):

   -26.6765 -26.6765 -26.6749 -26.6703 -26.6634  -6.4790  -6.3851  -6.3849
    -6.3384  -6.3185  -2.3760   2.7953   5.1018   7.2690  11.2836  14.3111
    14.4653  14.6592  17.1560  18.5505  21.6328  22.0116  23.3862  26.6493
    27.0579  27.8078

          k =-0.4875-0.4875 0.0000 (   463 PWs)   bands (ev):

   -26.6780 -26.6771 -26.6769 -26.6712 -26.6678  -6.4808  -6.3913  -6.3899
    -6.3402  -6.3331  -2.5597   3.0544   5.3253   7.4400  11.3446  14.1663
    14.1684  14.3603  16.9506  19.1259  21.1576  21.9558  22.7801  25.8708
    27.3383  28.2369

          k =-0.4500-0.4500 0.0000 (   463 PWs)   bands (ev):

   -26.6783 -26.6777 -26.6760 -26.6703 -26.6684  -6.4757  -6.3943  -6.3909
    -6.3368  -6.3354  -2.7483   3.3504   5.5800   7.6079  11.3650  13.8943
    13.9164  14.2410  16.7928  19.3998  20.6426  22.1361  22.3297  25.0651
    27.7308  28.4365

          k =-0.4125-0.4125 0.0000 (   463 PWs)   bands (ev):

   -26.6786 -26.6774 -26.6757 -26.6701 -26.6685  -6.4710  -6.3960  -6.3913
    -6.3358  -6.3358  -2.9367   3.6812   5.8606   7.7690  11.3423  13.6316
    13.6431  14.2278  16.6866  19.3124  20.1353  21.7969  22.7762  24.3594
    27.7159  28.1364

          k =-0.3750-0.3750 0.0000 (   473 PWs)   bands (ev):

   -26.6810 -26.6795 -26.6784 -26.6720 -26.6711  -6.4690  -6.4100  -6.4001
    -6.3443  -6.3422  -3.1202   4.0445   6.1620   7.9200  11.2807  13.3647
    13.4146  14.2484  16.6342  18.9684  19.6923  21.4487  23.0596  24.1802
    26.8448  28.4471

          k =-0.3375-0.3375 0.0000 (   465 PWs)   bands (ev):

   -26.6792 -26.6773 -26.6759 -26.6712 -26.6686  -6.4612  -6.3984  -6.3960
    -6.3443  -6.3314  -3.2950   4.4381   6.4788   8.0583  11.1878  13.1246
    13.2092  14.2606  16.6404  18.5345  19.2959  21.1592  22.6072  24.9315
    25.9806  28.1997

          k =-0.3000-0.3000 0.0000 (   467 PWs)   bands (ev):

   -26.6792 -26.6782 -26.6758 -26.6714 -26.6696  -6.4549  -6.4027  -6.3978
    -6.3444  -6.3348  -3.4582   4.8595   6.8050   8.1812  11.0707  12.9140
    13.0260  14.2167  16.7057  18.1516  18.9010  20.9152  22.0566  25.1392
    25.9307  27.4867

          k =-0.2625-0.2625 0.0000 (   469 PWs)   bands (ev):

   -26.6792 -26.6788 -26.6756 -26.6716 -26.6704  -6.4474  -6.4074  -6.3993
    -6.3450  -6.3380  -3.6070   5.3064   7.1332   8.2874  10.9340  12.7353
    12.8651  14.0740  16.8312  17.8979  18.4955  20.7098  21.5645  24.3267
    26.7161  27.0119

          k =-0.2250-0.2250 0.0000 (   469 PWs)   bands (ev):

   -26.6790 -26.6783 -26.6754 -26.6715 -26.6703  -6.4391  -6.4088  -6.4005
    -6.3444  -6.3378  -3.7396   5.7759   7.4551   8.3764  10.7771  12.5902
    12.7261  13.8204  17.0166  17.7625  18.1214  20.5395  21.1544  23.5468
    25.9682  28.1372

          k =-0.1875-0.1875 0.0000 (   473 PWs)   bands (ev):

   -26.6792 -26.6784 -26.6775 -26.6726 -26.6701  -6.4331  -6.4118  -6.4089
    -6.3477  -6.3374  -3.8544   6.2649   7.7600   8.4484  10.5938  12.4799
    12.6087  13.4866  17.2593  17.5048  18.0124  20.4019  20.8270  22.8027
    25.2622  29.2946

          k =-0.1500-0.1500 0.0000 (   465 PWs)   bands (ev):

   -26.6768 -26.6768 -26.6762 -26.6709 -26.6657  -6.4200  -6.4076  -6.4055
    -6.3415  -6.3240  -3.9499   6.7692   8.0359   8.5045  10.3723  12.4047
    12.5129  13.1285  17.1171  17.5551  18.1513  20.2973  20.5756  22.0994
    24.6154  30.4755

          k =-0.1125-0.1125 0.0000 (   473 PWs)   bands (ev):

   -26.6809 -26.6775 -26.6773 -26.6717 -26.6667  -6.4305  -6.4112  -6.4096
    -6.3441  -6.3270  -4.0254   7.2826   8.2692   8.5460  10.0977  12.3617
    12.4385  12.8022  16.7506  17.8949  18.3587  20.2240  20.3903  21.4437
    24.0480  31.6641

          k =-0.0750-0.0750 0.0000 (   473 PWs)   bands (ev):

   -26.6807 -26.6797 -26.6763 -26.6696 -26.6668  -6.4264  -6.4180  -6.4078
    -6.3370  -6.3278  -4.0798   7.7957   8.4469   8.5745   9.7610  12.3445
    12.3854  12.5501  16.4539  18.2613  18.5650  20.1827  20.2635  20.8539
    23.5905  32.8275

          k =-0.0375-0.0375 0.0000 (   459 PWs)   bands (ev):

   -26.6754 -26.6754 -26.6754 -26.6654 -26.6653  -6.4063  -6.4054  -6.4052
    -6.3227  -6.3227  -4.1126   8.2857   8.5586   8.5911   9.3767  12.3420
    12.3535  12.3948  16.2599  18.6047  18.7163  20.1684  20.1903  20.3779
    23.2848  33.8667

          k = 0.0000 0.0000 0.0000 (   459 PWs)   bands (ev):

   -26.6754 -26.6754 -26.6754 -26.6654 -26.6654  -6.4057  -6.4057  -6.4057
    -6.3229  -6.3229  -4.1236   8.5965   8.5965   8.5965   9.1006  12.3429
    12.3429  12.3429  16.1921  18.7717  18.7717  20.1661  20.1661  20.1661
    23.1759  34.3243

     Writing all to output data dir ./GaAs.save/ :
     XML data file, pseudopotentials, collected wavefunctions

     init_run     :      0.68s CPU      0.69s WALL (       1 calls)
     electrons    :    454.94s CPU     15.54s WALL (       1 calls)

     Called by init_run:
     wfcinit      :      0.00s CPU      0.00s WALL (       1 calls)
     potinit      :      0.20s CPU      0.22s WALL (       1 calls)
     hinit0       :      0.45s CPU      0.45s WALL (       1 calls)

     Called by electrons:
     c_bands      :    454.88s CPU     15.54s WALL (       1 calls)
     v_of_rho     :      0.00s CPU      0.00s WALL (       1 calls)
     newd         :      0.02s CPU      0.01s WALL (       1 calls)
     PAW_pot      :      0.20s CPU      0.22s WALL (       1 calls)

     Called by c_bands:
     init_us_2    :      0.26s CPU      0.01s WALL (      67 calls)
     cegterg      :    429.65s CPU     14.65s WALL (     217 calls)

     Called by *egterg:
     cdiaghg      :     95.13s CPU      3.27s WALL (    3724 calls)
     h_psi        :    282.09s CPU      9.64s WALL (    3941 calls)
     s_psi        :     26.61s CPU      0.83s WALL (    3941 calls)
     g_psi        :      6.04s CPU      0.23s WALL (    3657 calls)

     Called by h_psi:
     h_psi:calbec :      8.56s CPU      0.27s WALL (    3941 calls)
     vloc_psi     :    265.38s CPU      9.11s WALL (    3941 calls)
     add_vuspsi   :      5.72s CPU      0.19s WALL (    3941 calls)

     General routines
     calbec       :      8.35s CPU      0.27s WALL (    3941 calls)
     fft          :      0.12s CPU      0.12s WALL (      12 calls)
     fftw         :    217.96s CPU      7.45s WALL (  104666 calls)
     davcio       :      0.43s CPU      0.01s WALL (     134 calls)

     Parallel routines

     PWSCF        :   7m37.18s CPU     16.52s WALL


   This run was terminated on:   9:36:13  27May2025            

=------------------------------------------------------------------------------=
   JOB DONE.
=------------------------------------------------------------------------------=
